.. This  lists a range of tutorial exercises copied directly from ftp://ftp.dl.ac.uk/ccp5/DL_POLY/DL_POLY_4.0/TUTORIAL/

   

******************
DL_FIELD Exercises
******************

Under construction.
