.. This  lists a range of tutorial exercises copied directly from ftp://ftp.dl.ac.uk/ccp5/DL_POLY/DL_POLY_4.0/TUTORIAL/

   

******************
Tutorial Exercises
******************

This is the main portal for the DL_Software tutorial exercises.


.. toctree::
   :maxdepth: 2

	      
   ./exercises_dlpoly
   ./exercises_dlfield
