.. This  lists a range of tutorial exercises listed as ' low difficulty' copied directly from ftp://ftp.dl.ac.uk/ccp5/DL_POLY/DL_POLY_4.0/TUTORIAL/

   

************************************************
Adsorption of Formic Acid onto a Calcite Surface
************************************************










