.. This  lists a range of tutorial exercises listed as ' low difficulty' copied directly from ftp://ftp.dl.ac.uk/ccp5/DL_POLY/DL_POLY_4.0/TUTORIAL/

   

************************
Low Difficulty Exercises
************************





.. toctree::
   :maxdepth: 1

	      
   ./FAST_ION/fast_ion_conduction
   ./K_VALIN/potassium_capture
   ./WATER_PROPS/water_props
