.. This  lists a range of tutorial exercises listed as ' low difficulty' copied directly from ftp://ftp.dl.ac.uk/ccp5/DL_POLY/DL_POLY_4.0/TUTORIAL/

   

***************************
Medium Difficulty Exercises
***************************





.. toctree::
   :maxdepth: 1

	      
   ./anisotropic_const_P
   ./potential_mean_force
   ./diffusion_zeolites
   ./structure_dynamics_argon
   ./absorption_formic_calcite
