.. This is one of the exercises copied from a range of tutorial exercises listed as ' low difficulty' copied directly from ftp://ftp.dl.ac.uk/ccp5/DL_POLY/DL_POLY_4.0/TUTORIAL/

   

********************************
Potassium Capture by Valinomycin
********************************






